 VARIABLES = X,Y,Z,S11,S22,S33,S12,S13,S23
 ZONE, T="0.1000D+01" F=FEPOINT, I=   12 J=    2 ET=BRICK
   0.0000000000E+00   0.0000000000E+00   0.0000000000E+00   0.4505010562E+01   0.1451729254E-05   0.1451729250E-05   0.6050258602E-16  -0.8006532395E-15  -0.8487322714E-15
   0.1150000000E+01   0.0000000000E+00  -0.5316152294E-16   0.4505010562E+01   0.1451729132E-05   0.1451729133E-05  -0.1228784554E-14  -0.1117198235E-14   0.2954341111E-15
   0.1150000000E+01   0.9332047034E+00  -0.2542491154E-16   0.4505010561E+01   0.1451729202E-05   0.1451729199E-05  -0.8193868671E-15  -0.9411617563E-16   0.2087962142E-14
   0.0000000000E+00   0.9332047034E+00  -0.8910538701E-16   0.4505010561E+01   0.1451729430E-05   0.1451729431E-05  -0.1791253117E-14   0.9573675511E-15  -0.1100996427E-14
   0.0000000000E+00   0.0000000000E+00   0.9332047034E+00   0.4505010561E+01   0.1451729466E-05   0.1451729462E-05  -0.2886572693E-16   0.2903616976E-14   0.7147876674E-15
   0.1150000000E+01   0.0000000000E+00   0.9332047034E+00   0.4505010561E+01   0.1451729130E-05   0.1451729132E-05  -0.4015067774E-15  -0.3124613412E-15  -0.1914048160E-14
   0.1150000000E+01   0.9332047034E+00   0.9332047034E+00   0.4505010560E+01   0.1451728869E-05   0.1451728868E-05   0.4561358627E-15   0.2907565829E-15  -0.1215201284E-15
   0.0000000000E+00   0.9332047034E+00   0.9332047034E+00   0.4505010561E+01   0.1451728807E-05   0.1451728808E-05   0.1657046311E-14  -0.1724385237E-14   0.4625235119E-15
   0.2300000000E+01   0.0000000000E+00   0.1005815985E-16   0.4505010561E+01   0.1451728867E-05   0.1451728868E-05   0.9485712244E-16   0.1565368025E-14  -0.7935379081E-15
   0.2300000000E+01   0.9332047034E+00  -0.7458567790E-16   0.4505010561E+01   0.1451728832E-05   0.1451728834E-05   0.2765408198E-14  -0.8528143603E-15  -0.3231226168E-15
   0.2300000000E+01   0.0000000000E+00   0.9332047034E+00   0.4505010561E+01   0.1451729328E-05   0.1451729324E-05  -0.1651031035E-15  -0.5294284031E-15  -0.7855754928E-16
   0.2300000000E+01   0.9332047034E+00   0.9332047034E+00   0.4505010560E+01   0.1451729459E-05   0.1451729456E-05  -0.1357298614E-15   0.2598683945E-14   0.3918577418E-15
     1     2     3     4     5     6     7     8
     2     9    10     3     6    11    12     7
 VARIABLES = X,Y,Z,S11,S22,S33,S12,S13,S23
 ZONE, T="0.2000D+01" F=FEPOINT, I=   12 J=    2 ET=BRICK
   0.0000000000E+00   0.0000000000E+00   0.0000000000E+00   0.9137845607E+01   0.1995837340E-04   0.1995837341E-04   0.4417058418E-16   0.1782780193E-15  -0.4686741090E-15
   0.1300000000E+01   0.0000000000E+00   0.1522903084E-17   0.9137845607E+01   0.1995837369E-04   0.1995837368E-04   0.1315847596E-14   0.9940569652E-15  -0.4408598991E-16
   0.1300000000E+01   0.8783927463E+00  -0.8885105494E-17   0.9137845606E+01   0.1995837467E-04   0.1995837467E-04   0.2883388388E-14  -0.1181189259E-14  -0.1810934011E-14
   0.0000000000E+00   0.8783927463E+00  -0.5459138282E-16   0.9137845606E+01   0.1995837407E-04   0.1995837407E-04   0.3861291112E-14   0.7607047910E-15   0.2759687034E-14
   0.0000000000E+00   0.0000000000E+00   0.8783927463E+00   0.9137845606E+01   0.1995837468E-04   0.1995837467E-04  -0.1894476053E-16  -0.3088807185E-14  -0.1995532250E-14
   0.1300000000E+01   0.0000000000E+00   0.8783927463E+00   0.9137845606E+01   0.1995837413E-04   0.1995837413E-04  -0.1666890115E-14  -0.2027417095E-15   0.1082385734E-14
   0.1300000000E+01   0.8783927463E+00   0.8783927463E+00   0.9137845605E+01   0.1995837354E-04   0.1995837354E-04  -0.3294556113E-14  -0.6145856621E-15  -0.6844622875E-15
   0.0000000000E+00   0.8783927463E+00   0.8783927463E+00   0.9137845605E+01   0.1995837393E-04   0.1995837393E-04  -0.5211207562E-14   0.2193394854E-14   0.1232828893E-14
   0.2600000000E+01   0.0000000000E+00  -0.2983369618E-16   0.9137845607E+01   0.1995837407E-04   0.1995837406E-04  -0.1667747858E-15  -0.3013705628E-15   0.5033623833E-15
   0.2600000000E+01   0.8783927463E+00   0.2068600435E-16   0.9137845606E+01   0.1995837420E-04   0.1995837420E-04  -0.8488137280E-15   0.2811481789E-15  -0.7249796810E-15
   0.2600000000E+01   0.0000000000E+00   0.8783927463E+00   0.9137845606E+01   0.1995837388E-04   0.1995837388E-04   0.1285319118E-15   0.5721172918E-15   0.1114697497E-14
   0.2600000000E+01   0.8783927463E+00   0.8783927463E+00   0.9137845605E+01   0.1995837459E-04   0.1995837459E-04   0.2065462717E-14  -0.1833468926E-16  -0.1136445668E-15
     1     2     3     4     5     6     7     8
     2     9    10     3     6    11    12     7
 VARIABLES = X,Y,Z,S11,S22,S33,S12,S13,S23
 ZONE, T="0.3000D+01" F=FEPOINT, I=   12 J=    2 ET=BRICK
   0.0000000000E+00   0.0000000000E+00   0.0000000000E+00   0.1398744954E+02   0.1911998617E-04   0.1911998617E-04  -0.2177494782E-16  -0.3414130344E-16  -0.6123828907E-15
   0.1450000000E+01   0.0000000000E+00  -0.7590256768E-17   0.1398744954E+02   0.1911998604E-04   0.1911998604E-04  -0.2604974756E-14  -0.2650744573E-14  -0.4554000159E-15
   0.1450000000E+01   0.8323885432E+00  -0.5896858578E-16   0.1398744954E+02   0.1911998604E-04   0.1911998604E-04  -0.1227276794E-14   0.2667265450E-14  -0.6895156594E-15
   0.0000000000E+00   0.8323885432E+00  -0.6673369922E-16   0.1398744954E+02   0.1911998554E-04   0.1911998555E-04   0.2131044005E-14   0.4262366854E-16   0.1582174045E-14
   0.0000000000E+00   0.0000000000E+00   0.8323885432E+00   0.1398744954E+02   0.1911998600E-04   0.1911998600E-04  -0.3266701378E-17  -0.2093338171E-16  -0.3181188929E-15
   0.1450000000E+01   0.0000000000E+00   0.8323885432E+00   0.1398744954E+02   0.1911998604E-04   0.1911998604E-04   0.1749779409E-14  -0.3169156201E-14   0.1970088282E-15
   0.1450000000E+01   0.8323885432E+00   0.8323885432E+00   0.1398744953E+02   0.1911998603E-04   0.1911998603E-04   0.1037153917E-14   0.3789993370E-14  -0.3710681537E-16
   0.0000000000E+00   0.8323885432E+00   0.8323885432E+00   0.1398744953E+02   0.1911998617E-04   0.1911998617E-04  -0.2421195344E-14   0.4708808990E-15   0.1876438043E-14
   0.2900000000E+01   0.0000000000E+00   0.1406051605E-16   0.1398744954E+02   0.1911998591E-04   0.1911998591E-04  -0.3210661263E-15  -0.6856994053E-15  -0.9826438464E-15
   0.2900000000E+01   0.8323885432E+00  -0.1050519076E-15   0.1398744953E+02   0.1911998653E-04   0.1911998653E-04   0.2815108432E-15   0.3307353959E-16  -0.1660910074E-14
   0.2900000000E+01   0.0000000000E+00   0.8323885432E+00   0.1398744953E+02   0.1911998607E-04   0.1911998607E-04   0.9365764963E-15  -0.1735730583E-14   0.7944399389E-15
   0.2900000000E+01   0.8323885432E+00   0.8323885432E+00   0.1398744953E+02   0.1911998590E-04   0.1911998591E-04   0.1929254154E-14   0.1850272151E-14   0.1161737113E-15
     1     2     3     4     5     6     7     8
     2     9    10     3     6    11    12     7
 VARIABLES = X,Y,Z,S11,S22,S33,S12,S13,S23
 ZONE, T="0.4000D+01" F=FEPOINT, I=   12 J=    2 ET=BRICK
   0.0000000000E+00   0.0000000000E+00   0.0000000000E+00   0.1910696116E+02   0.1782380323E-04   0.1782380323E-04  -0.1577630929E-15   0.2588148552E-15  -0.1861881858E-14
   0.1600000000E+01   0.0000000000E+00  -0.5373466398E-17   0.1910696116E+02   0.1782380320E-04   0.1782380320E-04   0.7942523310E-16  -0.3591134188E-14  -0.8892733688E-15
   0.1600000000E+01   0.7930829870E+00  -0.1180021447E-15   0.1910696116E+02   0.1782380340E-04   0.1782380340E-04   0.4785042396E-14  -0.2804289663E-15   0.4036293085E-15
   0.0000000000E+00   0.7930829870E+00  -0.2404996981E-15   0.1910696116E+02   0.1782380325E-04   0.1782380326E-04   0.2810550393E-14   0.1319309375E-14   0.1601167567E-14
   0.0000000000E+00   0.0000000000E+00   0.7930829870E+00   0.1910696116E+02   0.1782380327E-04   0.1782380327E-04   0.2475056143E-16   0.1843636463E-14  -0.9711890188E-15
   0.1600000000E+01   0.0000000000E+00   0.7930829870E+00   0.1910696116E+02   0.1782380313E-04   0.1782380313E-04  -0.6127545226E-15  -0.2243273756E-14  -0.6046843578E-15
   0.1600000000E+01   0.7930829870E+00   0.7930829870E+00   0.1910696115E+02   0.1782380365E-04   0.1782380365E-04  -0.2531006613E-14   0.7602983399E-15   0.6882183194E-15
   0.0000000000E+00   0.7930829870E+00   0.7930829870E+00   0.1910696115E+02   0.1782380313E-04   0.1782380313E-04  -0.4583467588E-15   0.2761708025E-14   0.2491860405E-14
   0.3200000000E+01   0.0000000000E+00  -0.1875686440E-16   0.1910696116E+02   0.1782380332E-04   0.1782380331E-04  -0.7643283953E-15   0.2235339454E-14   0.4583255048E-15
   0.3200000000E+01   0.7930829870E+00   0.3789034125E-16   0.1910696116E+02   0.1782380301E-04   0.1782380300E-04   0.5678592445E-14   0.2483064489E-15  -0.2270570526E-14
   0.3200000000E+01   0.0000000000E+00   0.7930829870E+00   0.1910696116E+02   0.1782380313E-04   0.1782380313E-04   0.4122671788E-15   0.3346238710E-14   0.8038935468E-15
   0.3200000000E+01   0.7930829870E+00   0.7930829870E+00   0.1910696115E+02   0.1782380365E-04   0.1782380365E-04  -0.2941139683E-14   0.8873624110E-15  -0.1925002483E-14
     1     2     3     4     5     6     7     8
     2     9    10     3     6    11    12     7
 VARIABLES = X,Y,Z,S11,S22,S33,S12,S13,S23
 ZONE, T="0.5000D+01" F=FEPOINT, I=   12 J=    2 ET=BRICK
   0.0000000000E+00   0.0000000000E+00   0.0000000000E+00   0.2452884002E+02   0.1551151094E-04   0.1551151094E-04  -0.6916273936E-16   0.3052607794E-15  -0.4704914876E-15
   0.1750000000E+01   0.0000000000E+00  -0.6563942770E-17   0.2452884002E+02   0.1551151126E-04   0.1551151126E-04   0.4306187640E-14   0.3608217662E-14   0.6463796588E-16
   0.1750000000E+01   0.7590130021E+00   0.6900052492E-17   0.2452884002E+02   0.1551151096E-04   0.1551151096E-04   0.5216048774E-14  -0.2739084339E-14  -0.1191639295E-14
   0.0000000000E+00   0.7590130021E+00  -0.5378549793E-16   0.2452884002E+02   0.1551151108E-04   0.1551151108E-04   0.1709742127E-14   0.7830750201E-15   0.5042541269E-15
   0.0000000000E+00   0.0000000000E+00   0.7590130021E+00   0.2452884002E+02   0.1551151108E-04   0.1551151108E-04  -0.2990563031E-16  -0.4113176835E-14  -0.2384614557E-15
   0.1750000000E+01   0.0000000000E+00   0.7590130021E+00   0.2452884002E+02   0.1551151096E-04   0.1551151096E-04  -0.2831068945E-14   0.2655508038E-14   0.1135599734E-14
   0.1750000000E+01   0.7590130021E+00   0.7590130021E+00   0.2452884001E+02   0.1551151113E-04   0.1551151113E-04  -0.5518617121E-14  -0.4115115359E-14  -0.1206775273E-15
   0.0000000000E+00   0.7590130021E+00   0.7590130021E+00   0.2452884002E+02   0.1551151099E-04   0.1551151099E-04  -0.4049510212E-14   0.1286990625E-14   0.7362841586E-15
   0.3500000000E+01   0.0000000000E+00  -0.6731952771E-16   0.2452884002E+02   0.1551151152E-04   0.1551151152E-04  -0.5380599216E-15  -0.2493138006E-14   0.1335300572E-14
   0.3500000000E+01   0.7590130021E+00   0.1162150303E-15   0.2452884002E+02   0.1551151105E-04   0.1551151104E-04  -0.4972425192E-15   0.2778265600E-14  -0.4894344015E-15
   0.3500000000E+01   0.0000000000E+00   0.7590130021E+00   0.2452884002E+02   0.1551151104E-04   0.1551151105E-04   0.1628201862E-15   0.1988036056E-16   0.6214281027E-15
   0.3500000000E+01   0.7590130021E+00   0.7590130021E+00   0.2452884001E+02   0.1551151054E-04   0.1551151054E-04  -0.1192671585E-14  -0.4777120463E-15  -0.1203306870E-14
     1     2     3     4     5     6     7     8
     2     9    10     3     6    11    12     7
 VARIABLES = X,Y,Z,S11,S22,S33,S12,S13,S23
 ZONE, T="0.6000D+01" F=FEPOINT, I=   12 J=    2 ET=BRICK
   0.0000000000E+00   0.0000000000E+00   0.0000000000E+00   0.3027289495E+02   0.1190347687E-04   0.1190347687E-04  -0.1401073318E-15  -0.2615446069E-14  -0.1876956307E-14
   0.1900000000E+01   0.0000000000E+00  -0.1211397353E-15   0.3027289495E+02   0.1190347649E-04   0.1190347649E-04   0.3114571436E-15  -0.7413029244E-15  -0.4360877113E-15
   0.1900000000E+01   0.7291274428E+00  -0.1797608710E-15   0.3027289495E+02   0.1190347676E-04   0.1190347676E-04   0.2865865460E-14  -0.9252526921E-15  -0.5332218180E-15
   0.0000000000E+00   0.7291274428E+00  -0.2559076222E-15   0.3027289495E+02   0.1190347674E-04   0.1190347674E-04   0.4944886627E-14   0.1789946289E-14   0.5867018803E-15
   0.0000000000E+00   0.0000000000E+00   0.7291274428E+00   0.3027289495E+02   0.1190347687E-04   0.1190347687E-04   0.3496262804E-15  -0.1402747399E-14  -0.5349673971E-17
   0.1900000000E+01   0.0000000000E+00   0.7291274428E+00   0.3027289495E+02   0.1190347649E-04   0.1190347649E-04  -0.3099344195E-14   0.2163863339E-14   0.6157585949E-15
   0.1900000000E+01   0.7291274428E+00   0.7291274428E+00   0.3027289494E+02   0.1190347676E-04   0.1190347676E-04  -0.3925606457E-14  -0.4929458846E-15   0.5186244880E-15
   0.0000000000E+00   0.7291274428E+00   0.7291274428E+00   0.3027289494E+02   0.1190347674E-04   0.1190347674E-04  -0.2710242570E-14   0.1745324162E-14   0.2458308512E-14
   0.3800000000E+01   0.0000000000E+00  -0.2433975441E-15   0.3027289495E+02   0.1190347704E-04   0.1190347705E-04   0.1826068689E-15  -0.2289121024E-14   0.3174140919E-15
   0.3800000000E+01   0.7291274428E+00  -0.1998993483E-15   0.3027289494E+02   0.1190347703E-04   0.1190347703E-04   0.2064295430E-15  -0.1013683700E-14   0.4703276550E-15
   0.3800000000E+01   0.0000000000E+00   0.7291274428E+00   0.3027289494E+02   0.1190347704E-04   0.1190347704E-04   0.5618747743E-15   0.2308512834E-14  -0.4456060389E-15
   0.3800000000E+01   0.7291274428E+00   0.7291274428E+00   0.3027289494E+02   0.1190347703E-04   0.1190347703E-04   0.1969219099E-14  -0.1044479583E-15  -0.2926924757E-15
     1     2     3     4     5     6     7     8
     2     9    10     3     6    11    12     7
 VARIABLES = X,Y,Z,S11,S22,S33,S12,S13,S23
 ZONE, T="0.7000D+01" F=FEPOINT, I=   12 J=    2 ET=BRICK
   0.0000000000E+00   0.0000000000E+00   0.0000000000E+00   0.3635079000E+02   0.6863608215E-05   0.6863608215E-05   0.3595784629E-16   0.4241805077E-14   0.1057764394E-14
   0.2050000000E+01   0.0000000000E+00   0.1230107279E-15   0.3635079000E+02   0.6863607823E-05   0.6863607824E-05  -0.2177681326E-14   0.1798792138E-14  -0.6028559238E-15
   0.2050000000E+01   0.7026489720E+00   0.2122631253E-16   0.3635079000E+02   0.6863607866E-05   0.6863607867E-05  -0.3282139236E-14   0.8450009515E-15   0.1115241710E-14
   0.0000000000E+00   0.7026489720E+00   0.1593477739E-15   0.3635079000E+02   0.6863608572E-05   0.6863608568E-05  -0.8861364782E-14  -0.2322782862E-14  -0.9066177104E-15
   0.0000000000E+00   0.0000000000E+00   0.7026489720E+00   0.3635079000E+02   0.6863609415E-05   0.6863609420E-05  -0.1416976170E-15  -0.3848380475E-15   0.4779718502E-15
   0.2050000000E+01   0.0000000000E+00   0.7026489720E+00   0.3635079000E+02   0.6863608716E-05   0.6863608713E-05   0.1740468578E-15   0.2349609312E-14  -0.1283832142E-14
   0.2050000000E+01   0.7026489720E+00   0.7026489720E+00   0.3635078999E+02   0.6863608552E-05   0.6863608549E-05   0.2991629242E-14   0.2355133053E-14   0.4342654915E-15
   0.0000000000E+00   0.7026489720E+00   0.7026489720E+00   0.3635079000E+02   0.6863608079E-05   0.6863608080E-05   0.4895055733E-14  -0.7741553878E-14  -0.1486410254E-14
   0.4100000000E+01   0.0000000000E+00  -0.1092433049E-15   0.3635079000E+02   0.6863608702E-05   0.6863608705E-05  -0.4832801301E-15  -0.3268462353E-14  -0.5047222078E-15
   0.4100000000E+01   0.7026489720E+00  -0.1920948287E-15   0.3635079000E+02   0.6863608679E-05   0.6863608682E-05   0.6205126677E-14  -0.6629891400E-14   0.8220447556E-15
   0.4100000000E+01   0.0000000000E+00   0.7026489720E+00   0.3635079000E+02   0.6863608847E-05   0.6863608847E-05   0.1110321109E-14   0.2459815120E-14  -0.8448629876E-15
   0.4100000000E+01   0.7026489720E+00   0.7026489720E+00   0.3635078999E+02   0.6863608928E-05   0.6863608928E-05   0.1708732527E-14   0.1809143819E-14   0.4819039757E-15
     1     2     3     4     5     6     7     8
     2     9    10     3     6    11    12     7
 VARIABLES = X,Y,Z,S11,S22,S33,S12,S13,S23
 ZONE, T="0.8000D+01" F=FEPOINT, I=   12 J=    2 ET=BRICK
   0.0000000000E+00   0.0000000000E+00   0.0000000000E+00   0.4276874070E+02   0.2122286314E-04   0.2122286314E-04  -0.2140827075E-16   0.2990050285E-14   0.7243274525E-15
   0.2200000000E+01   0.0000000000E+00   0.6564103416E-16   0.4276874070E+02   0.2122286241E-04   0.2122286241E-04  -0.1039176001E-14  -0.1655748816E-14  -0.5001605022E-15
   0.2200000000E+01   0.6789886400E+00  -0.1338855127E-16   0.4276874070E+02   0.2122286312E-04   0.2122286313E-04  -0.1649401993E-14   0.2671736329E-14   0.3686187716E-15
   0.0000000000E+00   0.6789886400E+00   0.9222500734E-16   0.4276874070E+02   0.2122286296E-04   0.2122286295E-04  -0.5540321017E-14  -0.4113905319E-14  -0.4163894961E-15
   0.0000000000E+00   0.0000000000E+00   0.6789886400E+00   0.4276874070E+02   0.2122286296E-04   0.2122286296E-04   0.1875213673E-16   0.1225262066E-14   0.4634607432E-15
   0.2200000000E+01   0.0000000000E+00   0.6789886400E+00   0.4276874070E+02   0.2122286312E-04   0.2122286312E-04   0.9446569563E-16  -0.3825238829E-15   0.1646923101E-16
   0.2200000000E+01   0.6789886400E+00   0.6789886400E+00   0.4276874069E+02   0.2122286301E-04   0.2122286302E-04  -0.4316752566E-15   0.2295802471E-14   0.8852485047E-15
   0.0000000000E+00   0.6789886400E+00   0.6789886400E+00   0.4276874069E+02   0.2122286296E-04   0.2122286296E-04   0.2438804738E-14   0.4108946152E-15  -0.6772562052E-15
   0.4400000000E+01   0.0000000000E+00  -0.4170278394E-16   0.4276874070E+02   0.2122286310E-04   0.2122286310E-04   0.3303504082E-15  -0.1720570280E-14   0.9331356818E-15
   0.4400000000E+01   0.6789886400E+00   0.8848115768E-16   0.4276874070E+02   0.2122286309E-04   0.2122286309E-04   0.4628811171E-14   0.2755823351E-14   0.6138573543E-16
   0.4400000000E+01   0.0000000000E+00   0.6789886400E+00   0.4276874070E+02   0.2122286309E-04   0.2122286309E-04   0.5241073920E-15   0.2590667805E-14  -0.4528973387E-15
   0.4400000000E+01   0.6789886400E+00   0.6789886400E+00   0.4276874069E+02   0.2122286245E-04   0.2122286245E-04  -0.2948227113E-14  -0.2520844298E-14  -0.1324647285E-14
     1     2     3     4     5     6     7     8
     2     9    10     3     6    11    12     7
 VARIABLES = X,Y,Z,S11,S22,S33,S12,S13,S23
 ZONE, T="0.9000D+01" F=FEPOINT, I=   12 J=    2 ET=BRICK
   0.0000000000E+00   0.0000000000E+00   0.0000000000E+00   0.4952908285E+02  -0.7882353728E-05  -0.7882353730E-05  -0.1080825820E-15  -0.2401938152E-14  -0.7772037333E-16
   0.2350000000E+01   0.0000000000E+00  -0.9507176280E-16   0.4952908285E+02  -0.7882353511E-05  -0.7882353511E-05  -0.1414949784E-14  -0.2496954929E-14   0.9163049210E-15
   0.2350000000E+01   0.6576908958E+00   0.3752450243E-16   0.4952908285E+02  -0.7882353510E-05  -0.7882353509E-05   0.1879508351E-14  -0.9129369783E-16  -0.5948885208E-15
   0.0000000000E+00   0.6576908958E+00   0.5151837574E-17   0.4952908285E+02  -0.7882354039E-05  -0.7882354038E-05   0.3809788694E-14   0.9142137726E-15  -0.6726614379E-16
   0.0000000000E+00   0.0000000000E+00   0.6576908958E+00   0.4952908285E+02  -0.7882354034E-05  -0.7882354036E-05   0.3359874866E-15   0.1606356080E-14   0.4131140927E-15
   0.2350000000E+01   0.0000000000E+00   0.6576908958E+00   0.4952908285E+02  -0.7882353565E-05  -0.7882353564E-05  -0.3739051485E-15  -0.2038766260E-14   0.4357639313E-15
   0.2350000000E+01   0.6576908958E+00   0.6576908958E+00   0.4952908284E+02  -0.7882353897E-05  -0.7882353897E-05  -0.1533405294E-14   0.1724736446E-14  -0.1075429510E-14
   0.0000000000E+00   0.6576908958E+00   0.6576908958E+00   0.4952908284E+02  -0.7882353191E-05  -0.7882353190E-05  -0.1419977773E-14   0.1162491482E-14   0.4235683221E-15
   0.4700000000E+01   0.0000000000E+00  -0.8681034034E-16   0.4952908285E+02  -0.7882353290E-05  -0.7882353294E-05   0.3847243014E-15   0.2803479399E-14   0.5742687253E-15
   0.4700000000E+01   0.6576908958E+00  -0.2419049917E-17   0.4952908284E+02  -0.7882352292E-05  -0.7882352295E-05   0.3055769296E-14  -0.1675887180E-15  -0.2069976839E-14
   0.4700000000E+01   0.0000000000E+00   0.6576908958E+00   0.4952908284E+02  -0.7882353782E-05  -0.7882353780E-05  -0.7115900863E-15  -0.2884374939E-15   0.1598321464E-14
   0.4700000000E+01   0.6576908958E+00   0.6576908958E+00   0.4952908284E+02  -0.7882354605E-05  -0.7882354603E-05  -0.1274625116E-14   0.3216193860E-14  -0.1045924100E-14
     1     2     3     4     5     6     7     8
     2     9    10     3     6    11    12     7
 VARIABLES = X,Y,Z,S11,S22,S33,S12,S13,S23
 ZONE, T="0.1000D+02" F=FEPOINT, I=   12 J=    2 ET=BRICK
   0.0000000000E+00   0.0000000000E+00   0.0000000000E+00   0.5663154616E+02  -0.1777467487E-04  -0.1777467486E-04   0.3633010303E-15   0.4798585039E-14   0.1532876944E-14
   0.2500000000E+01   0.0000000000E+00   0.1131272992E-15   0.5663154615E+02  -0.1777467575E-04  -0.1777467575E-04  -0.8128068570E-15   0.7196292077E-15  -0.6689312785E-15
   0.2500000000E+01   0.6383971084E+00   0.1673051524E-16   0.5663154615E+02  -0.1777467536E-04  -0.1777467536E-04   0.9839537870E-15   0.2112787238E-14  -0.2154888106E-15
   0.0000000000E+00   0.6383971084E+00   0.2601178524E-15   0.5663154615E+02  -0.1777467599E-04  -0.1777467600E-04  -0.3605133699E-15  -0.8634965684E-14   0.1773269727E-14
   0.0000000000E+00   0.0000000000E+00   0.6383971084E+00   0.5663154615E+02  -0.1777467485E-04  -0.1777467485E-04   0.2083224145E-15  -0.4763991045E-14  -0.1989410894E-14
   0.2500000000E+01   0.0000000000E+00   0.6383971084E+00   0.5663154615E+02  -0.1777467577E-04  -0.1777467578E-04   0.1742093088E-14  -0.1760813392E-14   0.7572002763E-15
   0.2500000000E+01   0.6383971084E+00   0.6383971084E+00   0.5663154614E+02  -0.1777467526E-04  -0.1777467526E-04  -0.1522113547E-14   0.5836875738E-14   0.1210642744E-14
   0.0000000000E+00   0.6383971084E+00   0.6383971084E+00   0.5663154614E+02  -0.1777467604E-04  -0.1777467604E-04   0.6660653323E-15   0.9509357178E-14  -0.1749018110E-14
   0.5000000000E+01   0.0000000000E+00   0.9609115813E-17   0.5663154615E+02  -0.1777467547E-04  -0.1777467547E-04  -0.1598676239E-15  -0.4272769152E-14   0.7905601725E-15
   0.5000000000E+01   0.6383971084E+00   0.1536239278E-15   0.5663154615E+02  -0.1777467536E-04  -0.1777467537E-04   0.4157468064E-14   0.5075881573E-14  -0.7972077128E-15
   0.5000000000E+01   0.0000000000E+00   0.6383971084E+00   0.5663154615E+02  -0.1777467528E-04  -0.1777467528E-04   0.3710285418E-16   0.3289217339E-15   0.2304625491E-15
   0.5000000000E+01   0.6383971084E+00   0.6383971084E+00   0.5663154614E+02  -0.1777467605E-04  -0.1777467605E-04  -0.6949053333E-14  -0.5620264286E-14  -0.1357305336E-14
     1     2     3     4     5     6     7     8
     2     9    10     3     6    11    12     7
