 VARIABLES = X,Y,DU1,DU2,U1,U2
 ZONE, T="0.1000D-02" F=FEPOINT, I= 4624 J= 4489
  -0.5000000000E+00  -0.5000000000E+00  -0.6136282133E-02   0.0000000000E+00   0.0000000000E+00   0.8798439564E-02
  -0.4850746390E+00  -0.5000000000E+00  -0.6793946393E-02   0.0000000000E+00   0.0000000000E+00   0.7856991583E-02
  -0.4850746390E+00  -0.4850746390E+00  -0.7240588664E-02   0.0000000000E+00   0.0000000000E+00   0.7016280136E-02
  -0.5000000000E+00  -0.4850746390E+00  -0.6793946393E-02   0.0000000000E+00   0.0000000000E+00   0.7856991583E-02
  -0.4701492490E+00  -0.5000000000E+00  -0.5307799179E-02   0.0000000000E+00   0.0000000000E+00   0.6523371233E-02
  -0.4701492490E+00  -0.4850746390E+00  -0.5714233969E-02   0.0000000000E+00   0.0000000000E+00   0.5825359429E-02
  -0.4552238880E+00  -0.5000000000E+00  -0.4040227539E-02   0.0000000000E+00   0.0000000000E+00   0.4864149248E-02
  -0.4552238880E+00  -0.4850746390E+00  -0.4334443812E-02   0.0000000000E+00   0.0000000000E+00   0.4343677015E-02
  -0.4402984980E+00  -0.5000000000E+00  -0.2441339589E-02   0.0000000000E+00   0.0000000000E+00   0.2962136995E-02
  -0.4402984980E+00  -0.4850746390E+00  -0.2622539616E-02   0.0000000000E+00   0.0000000000E+00   0.2645183304E-02
  -0.4253731370E+00  -0.5000000000E+00  -0.7552507178E-03   0.0000000000E+00   0.0000000000E+00   0.9122777984E-03
  -0.4253731370E+00  -0.4850746390E+00  -0.8106948934E-03   0.0000000000E+00   0.0000000000E+00   0.8146625241E-03
  -0.4104477470E+00  -0.5000000000E+00   0.9778647393E-03   0.0000000000E+00   0.0000000000E+00  -0.1183120364E-02
  -0.4104477470E+00  -0.4850746390E+00   0.1049941852E-02   0.0000000000E+00   0.0000000000E+00  -0.1056524475E-02
  -0.3955223860E+00  -0.5000000000E+00   0.2659645600E-02   0.0000000000E+00   0.0000000000E+00  -0.3219460864E-02
  -0.3955223860E+00  -0.4850746390E+00   0.2855921610E-02   0.0000000000E+00   0.0000000000E+00  -0.2874973082E-02
  -0.3805970250E+00  -0.5000000000E+00   0.4209272042E-02   0.0000000000E+00   0.0000000000E+00  -0.5095107014E-02
  -0.3805970250E+00  -0.4850746390E+00   0.4519899188E-02   0.0000000000E+00   0.0000000000E+00  -0.4549921908E-02
  -0.3656716350E+00  -0.5000000000E+00   0.5548542612E-02   0.0000000000E+00   0.0000000000E+00  -0.6716441721E-02
  -0.3656716350E+00  -0.4850746390E+00   0.5958059114E-02   0.0000000000E+00   0.0000000000E+00  -0.5997771047E-02
  -0.3507462740E+00  -0.5000000000E+00   0.6610856455E-02   0.0000000000E+00   0.0000000000E+00  -0.8002532327E-02
  -0.3507462740E+00  -0.4850746390E+00   0.7098832660E-02   0.0000000000E+00   0.0000000000E+00  -0.7146247772E-02
  -0.3358208840E+00  -0.5000000000E+00   0.7343181856E-02   0.0000000000E+00   0.0000000000E+00  -0.8889190360E-02
  -0.3358208840E+00  -0.4850746390E+00   0.7885264436E-02   0.0000000000E+00   0.0000000000E+00  -0.7938031889E-02
  -0.3208955230E+00  -0.5000000000E+00   0.7709030969E-02   0.0000000000E+00   0.0000000000E+00  -0.9332156241E-02
  -0.3208955230E+00  -0.4850746390E+00   0.8278148954E-02   0.0000000000E+00   0.0000000000E+00  -0.8333599668E-02
  -0.3059701620E+00  -0.5000000000E+00   0.7690172215E-02   0.0000000000E+00   0.0000000000E+00  -0.9309322150E-02
  -0.3059701620E+00  -0.4850746390E+00   0.8257896513E-02   0.0000000000E+00   0.0000000000E+00  -0.8313208864E-02
  -0.2910447720E+00  -0.5000000000E+00   0.7287545192E-02   0.0000000000E+00   0.0000000000E+00  -0.8821826429E-02
  -0.2910447720E+00  -0.4850746390E+00   0.7825516572E-02   0.0000000000E+00   0.0000000000E+00  -0.7877876013E-02
  -0.2761194110E+00  -0.5000000000E+00   0.6521213081E-02   0.0000000000E+00   0.0000000000E+00  -0.7894003549E-02
  -0.2761194110E+00  -0.4850746390E+00   0.7002567619E-02   0.0000000000E+00   0.0000000000E+00  -0.7049331759E-02
  -0.2611940210E+00  -0.5000000000E+00   0.5429371060E-02   0.0000000000E+00   0.0000000000E+00  -0.6572160928E-02
  -0.2611940210E+00  -0.4850746390E+00   0.5830085840E-02   0.0000000000E+00   0.0000000000E+00  -0.5868928543E-02
  -0.2462686600E+00  -0.5000000000E+00   0.4066473506E-02   0.0000000000E+00   0.0000000000E+00  -0.4922281384E-02
  -0.2462686600E+00  -0.4850746390E+00   0.4366564774E-02   0.0000000000E+00   0.0000000000E+00  -0.4395588914E-02
  -0.2313432840E+00  -0.5000000000E+00   0.2500521974E-02   0.0000000000E+00   0.0000000000E+00  -0.3026711872E-02
  -0.2313432840E+00  -0.4850746390E+00   0.2685034571E-02   0.0000000000E+00   0.0000000000E+00  -0.2702848560E-02
  -0.2164179090E+00  -0.5000000000E+00   0.8096931700E-03   0.0000000000E+00   0.0000000000E+00  -0.9800686121E-03
  -0.2164179090E+00  -0.4850746390E+00   0.8694371311E-03   0.0000000000E+00   0.0000000000E+00  -0.8751996056E-03
  -0.2014925330E+00  -0.5000000000E+00  -0.9215754036E-03   0.0000000000E+00   0.0000000000E+00   0.1115493470E-02
  -0.2014925330E+00  -0.4850746390E+00  -0.9895748171E-03   0.0000000000E+00   0.0000000000E+00   0.9961337733E-03
  -0.1865671580E+00  -0.5000000000E+00  -0.2606816440E-02   0.0000000000E+00   0.0000000000E+00   0.3155377197E-02
  -0.1865671580E+00  -0.4850746390E+00  -0.2799173403E-02   0.0000000000E+00   0.0000000000E+00   0.2817746476E-02
  -0.1716417970E+00  -0.5000000000E+00  -0.4161871314E-02   0.0000000000E+00   0.0000000000E+00   0.5037763255E-02
  -0.1716417970E+00  -0.4850746390E+00  -0.4469004764E-02   0.0000000000E+00   0.0000000000E+00   0.4498714028E-02
  -0.1567164210E+00  -0.5000000000E+00  -0.5509113837E-02   0.0000000000E+00   0.0000000000E+00   0.6668698729E-02
  -0.1567164210E+00  -0.4850746390E+00  -0.5915717215E-02   0.0000000000E+00   0.0000000000E+00   0.5955136636E-02
  -0.1417910460E+00  -0.5000000000E+00  -0.6581320643E-02   0.0000000000E+00   0.0000000000E+00   0.7966775804E-02
  -0.1417910460E+00  -0.4850746390E+00  -0.7067115372E-02   0.0000000000E+00   0.0000000000E+00   0.7114317258E-02
  -0.1268656700E+00  -0.5000000000E+00  -0.7325022681E-02   0.0000000000E+00   0.0000000000E+00   0.8867203037E-02
  -0.1268656700E+00  -0.4850746390E+00  -0.7865763333E-02   0.0000000000E+00   0.0000000000E+00   0.7918397248E-02
  -0.1119403020E+00  -0.5000000000E+00  -0.7703150826E-02   0.0000000000E+00   0.0000000000E+00   0.9325036702E-02
  -0.1119403020E+00  -0.4850746390E+00  -0.8271834277E-02   0.0000000000E+00   0.0000000000E+00   0.8327241933E-02
  -0.9701492640E-01  -0.5000000000E+00  -0.7696864525E-02   0.0000000000E+00   0.0000000000E+00   0.9317425199E-02
  -0.9701492640E-01  -0.4850746390E+00  -0.8265083398E-02   0.0000000000E+00   0.0000000000E+00   0.8320444873E-02
  -0.8208955080E-01  -0.5000000000E+00  -0.7306476683E-02   0.0000000000E+00   0.0000000000E+00   0.8844748094E-02
  -0.8208955080E-01  -0.4850746390E+00  -0.7845846937E-02   0.0000000000E+00   0.0000000000E+00   0.7898345021E-02
  -0.6716418270E-01  -0.5000000000E+00  -0.6551439738E-02   0.0000000000E+00   0.0000000000E+00   0.7930598935E-02
  -0.6716418270E-01  -0.4850746390E+00  -0.7035027129E-02   0.0000000000E+00   0.0000000000E+00   0.7082011376E-02
  -0.5223880710E-01  -0.5000000000E+00  -0.5469387375E-02   0.0000000000E+00   0.0000000000E+00   0.6620605222E-02
  -0.5223880710E-01  -0.4850746390E+00  -0.5873057139E-02   0.0000000000E+00   0.0000000000E+00   0.5912189215E-02
  -0.3731343150E-01  -0.5000000000E+00  -0.4114281007E-02   0.0000000000E+00   0.0000000000E+00   0.4980153718E-02
  -0.3731343150E-01  -0.4850746390E+00  -0.4417901364E-02   0.0000000000E+00   0.0000000000E+00   0.4447268809E-02
  -0.2238805960E-01  -0.5000000000E+00  -0.2553736253E-02   0.0000000000E+00   0.0000000000E+00   0.3091125643E-02
  -0.2238805960E-01  -0.4850746390E+00  -0.2742175965E-02   0.0000000000E+00   0.0000000000E+00   0.2760369948E-02
  -0.7462686390E-02  -0.5000000000E+00  -0.8656569560E-03   0.0000000000E+00   0.0000000000E+00   0.1047808462E-02
  -0.7462686390E-02  -0.4850746390E+00  -0.9295303106E-03   0.0000000000E+00   0.0000000000E+00   0.9356911768E-03
   0.7462686390E-02  -0.5000000000E+00   0.8656569560E-03   0.0000000000E+00   0.0000000000E+00  -0.1047808462E-02
   0.7462686390E-02  -0.4850746390E+00   0.9295303106E-03   0.0000000000E+00   0.0000000000E+00  -0.9356911768E-03
   0.2238805960E-01  -0.5000000000E+00   0.2553736253E-02   0.0000000000E+00   0.0000000000E+00  -0.3091125643E-02
   0.2238805960E-01  -0.4850746390E+00   0.2742175965E-02   0.0000000000E+00   0.0000000000E+00  -0.2760369948E-02
   0.3731343150E-01  -0.5000000000E+00   0.4114281007E-02   0.0000000000E+00   0.0000000000E+00  -0.4980153718E-02
   0.3731343150E-01  -0.4850746390E+00   0.4417901364E-02   0.0000000000E+00   0.0000000000E+00  -0.4447268809E-02
   0.5223880710E-01  -0.5000000000E+00   0.5469387375E-02   0.0000000000E+00   0.0000000000E+00  -0.6620605222E-02
   0.5223880710E-01  -0.4850746390E+00   0.5873057139E-02   0.0000000000E+00   0.0000000000E+00  -0.5912189215E-02
   0.6716418270E-01  -0.5000000000E+00   0.6551439738E-02   0.0000000000E+00   0.0000000000E+00  -0.7930598935E-02
   0.6716418270E-01  -0.4850746390E+00   0.7035027129E-02   0.0000000000E+00   0.0000000000E+00  -0.7082011376E-02
   0.8208955080E-01  -0.5000000000E+00   0.7306476683E-02   0.0000000000E+00   0.0000000000E+00  -0.8844748094E-02
   0.8208955080E-01  -0.4850746390E+00   0.7845846937E-02   0.0000000000E+00   0.0000000000E+00  -0.7898345021E-02
   0.9701492640E-01  -0.5000000000E+00   0.7696864525E-02   0.0000000000E+00   0.0000000000E+00  -0.9317425199E-02
   0.9701492640E-01  -0.4850746390E+00   0.8265083398E-02   0.0000000000E+00   0.0000000000E+00  -0.8320444873E-02
   0.1119403020E+00  -0.5000000000E+00   0.7703150826E-02   0.0000000000E+00   0.0000000000E+00  -0.9325036702E-02
   0.1119403020E+00  -0.4850746390E+00   0.8271834277E-02   0.0000000000E+00   0.0000000000E+00  -0.8327241933E-02
   0.1268656700E+00  -0.5000000000E+00   0.7325022681E-02   0.0000000000E+00   0.0000000000E+00  -0.8867203037E-02
   0.1268656700E+00  -0.4850746390E+00   0.7865763333E-02   0.0000000000E+00   0.0000000000E+00  -0.7918397248E-02
   0.1417910460E+00  -0.5000000000E+00   0.6581320643E-02   0.0000000000E+00   0.0000000000E+00  -0.7966775804E-02
   0.1417910460E+00  -0.4850746390E+00   0.7067115372E-02   0.0000000000E+00   0.0000000000E+00  -0.7114317258E-02
   0.1567164210E+00  -0.5000000000E+00   0.5509113837E-02   0.0000000000E+00   0.0000000000E+00  -0.6668698729E-02
   0.1567164210E+00  -0.4850746390E+00   0.5915717215E-02   0.0000000000E+00   0.0000000000E+00  -0.5955136636E-02
   0.1716417970E+00  -0.5000000000E+00   0.4161871314E-02   0.0000000000E+00   0.0000000000E+00  -0.5037763255E-02
   0.1716417970E+00  -0.4850746390E+00   0.4469004764E-02   0.0000000000E+00   0.0000000000E+00  -0.4498714028E-02
   0.1865671580E+00  -0.5000000000E+00   0.2606816440E-02   0.0000000000E+00   0.0000000000E+00  -0.3155377197E-02
   0.1865671580E+00  -0.4850746390E+00   0.2799173403E-02   0.0000000000E+00   0.0000000000E+00  -0.2817746476E-02
   0.2014925330E+00  -0.5000000000E+00   0.9215754036E-03   0.0000000000E+00   0.0000000000E+00  -0.1115493470E-02
   0.2014925330E+00  -0.4850746390E+00   0.9895748171E-03   0.0000000000E+00   0.0000000000E+00  -0.9961337733E-03
   0.2164179090E+00  -0.5000000000E+00  -0.8096931700E-03   0.0000000000E+00   0.0000000000E+00   0.9800686121E-03
   0.2164179090E+00  -0.4850746390E+00  -0.8694371311E-03   0.0000000000E+00   0.0000000000E+00   0.8751996056E-03
   0.2313432840E+00  -0.5000000000E+00  -0.2500521974E-02   0.0000000000E+00   0.0000000000E+00   0.3026711872E-02
   0.2313432840E+00  -0.4850746390E+00  -0.2685034571E-02   0.0000000000E+00   0.0000000000E+00   0.2702848560E-02
   0.2462686600E+00  -0.5000000000E+00  -0.4066473506E-02   0.0000000000E+00   0.0000000000E+00   0.4922281384E-02
   0.2462686600E+00  -0.4850746390E+00  -0.4366564774E-02   0.0000000000E+00   0.0000000000E+00   0.4395588914E-02
   0.2611940210E+00  -0.5000000000E+00  -0.5429371060E-02   0.0000000000E+00   0.0000000000E+00   0.6572160928E-02
   0.2611940210E+00  -0.4850746390E+00  -0.5830085840E-02   0.0000000000E+00   0.0000000000E+00   0.5868928543E-02
   0.2761194110E+00  -0.5000000000E+00  -0.6521213081E-02   0.0000000000E+00   0.0000000000E+00   0.7894003549E-02
   0.2761194110E+00  -0.4850746390E+00  -0.7002567619E-02   0.0000000000E+00   0.0000000000E+00   0.7049331759E-02
   0.2910447720E+00  -0.5000000000E+00  -0.7287545192E-02   0.0000000000E+00   0.0000000000E+00   0.8821826429E-02
   0.2910447720E+00  -0.4850746390E+00  -0.7825516572E-02   0.0000000000E+00   0.0000000000E+00   0.7877876013E-02
   0.3059701620E+00  -0.5000000000E+00  -0.7690172215E-02   0.0000000000E+00   0.0000000000E+00   0.9309322150E-02
   0.3059701620E+00  -0.4850746390E+00  -0.8257896513E-02   0.0000000000E+00   0.0000000000E+00   0.8313208864E-02
   0.3208955230E+00  -0.5000000000E+00  -0.7709030969E-02   0.0000000000E+00   0.0000000000E+00   0.9332156241E-02
   0.3208955230E+00  -0.4850746390E+00  -0.8278148954E-02   0.0000000000E+00   0.0000000000E+00   0.8333599668E-02
   0.3358208840E+00  -0.5000000000E+00  -0.7343181856E-02   0.0000000000E+00   0.0000000000E+00   0.8889190360E-02
   0.3358208840E+00  -0.4850746390E+00  -0.7885264436E-02   0.0000000000E+00   0.0000000000E+00   0.7938031889E-02
   0.3507462740E+00  -0.5000000000E+00  -0.6610856455E-02   0.0000000000E+00   0.0000000000E+00   0.8002532327E-02
   0.3507462740E+00  -0.4850746390E+00  -0.7098832660E-02   0.0000000000E+00   0.0000000000E+00   0.7146247772E-02
   0.3656716350E+00  -0.5000000000E+00  -0.5548542612E-02   0.0000000000E+00   0.0000000000E+00   0.6716441721E-02
   0.3656716350E+00  -0.4850746390E+00  -0.5958059114E-02   0.0000000000E+00   0.0000000000E+00   0.5997771047E-02
   0.3805970250E+00  -0.5000000000E+00  -0.4209272042E-02   0.0000000000E+00   0.0000000000E+00   0.5095107014E-02
   0.3805970250E+00  -0.4850746390E+00  -0.4519899188E-02   0.0000000000E+00   0.0000000000E+00   0.4549921908E-02
   0.3955223860E+00  -0.5000000000E+00  -0.2659645600E-02   0.0000000000E+00   0.0000000000E+00   0.3219460864E-02
   0.3955223860E+00  -0.4850746390E+00  -0.2855921610E-02   0.0000000000E+00   0.0000000000E+00   0.2874973082E-02
   0.4104477470E+00  -0.5000000000E+00  -0.9778647393E-03   0.0000000000E+00   0.0000000000E+00   0.1183120364E-02
   0.4104477470E+00  -0.4850746390E+00  -0.1049941852E-02   0.0000000000E+00   0.0000000000E+00   0.1056524475E-02
   0.4253731370E+00  -0.5000000000E+00   0.7552507178E-03   0.0000000000E+00   0.0000000000E+00  -0.9122777984E-03
   0.4253731370E+00  -0.4850746390E+00   0.8106948934E-03   0.0000000000E+00   0.0000000000E+00  -0.8146625241E-03
   0.4402984980E+00  -0.5000000000E+00   0.2441339589E-02   0.0000000000E+00   0.0000000000E+00  -0.2962136995E-02
   0.4402984980E+00  -0.4850746390E+00   0.2622539616E-02   0.0000000000E+00   0.0000000000E+00  -0.2645183304E-02
   0.4552238880E+00  -0.5000000000E+00   0.4040227539E-02   0.0000000000E+00   0.0000000000E+00  -0.4864149248E-02
   0.4552238880E+00  -0.4850746390E+00   0.4334443812E-02   0.0000000000E+00   0.0000000000E+00  -0.4343677015E-02
   0.4701492490E+00  -0.5000000000E+00   0.5307799179E-02   0.0000000000E+00   0.0000000000E+00  -0.6523371233E-02
   0.4701492490E+00  -0.4850746390E+00   0.5714233969E-02   0.0000000000E+00   0.0000000000E+00  -0.5825359429E-02
   0.4850746390E+00  -0.5000000000E+00   0.6793946393E-02   0.0000000000E+00   0.0000000000E+00  -0.7856991583E-02
   0.4850746390E+00  -0.4850746390E+00   0.7240588664E-02   0.0000000000E+00   0.0000000000E+00  -0.7016280136E-02
   0.5000000000E+00  -0.5000000000E+00   0.6136282133E-02   0.0000000000E+00   0.0000000000E+00  -0.8798439564E-02
   0.5000000000E+00  -0.4850746390E+00   0.6793946393E-02   0.0000000000E+00   0.0000000000E+00  -0.7856991583E-02
  -0.4850746390E+00  -0.4701492490E+00  -0.5714233969E-02   0.0000000000E+00   0.0000000000E+00   0.5825359429E-02
  -0.5000000000E+00  -0.4701492490E+00  -0.5307799179E-02   0.0000000000E+00   0.0000000000E+00   0.6523371233E-02
  -0.4701492490E+00  -0.4701492490E+00  -0.4497406559E-02   0.0000000000E+00   0.0000000000E+00   0.4836581753E-02
  -0.4552238880E+00  -0.4701492490E+00  -0.3414601867E-02   0.0000000000E+00   0.0000000000E+00   0.3606395321E-02
  -0.4402984980E+00  -0.4701492490E+00  -0.2065260977E-02   0.0000000000E+00   0.0000000000E+00   0.2196198442E-02
  -0.4253731370E+00  -0.4701492490E+00  -0.6385527775E-03   0.0000000000E+00   0.0000000000E+00   0.6763843410E-03
  -0.4104477470E+00  -0.4701492490E+00   0.8269371921E-03   0.0000000000E+00   0.0000000000E+00  -0.8771934263E-03
  -0.3955223860E+00  -0.4701492490E+00   0.2249288981E-02   0.0000000000E+00   0.0000000000E+00  -0.2386984446E-02
  -0.3805970250E+00  -0.4701492490E+00   0.3559838238E-02   0.0000000000E+00   0.0000000000E+00  -0.3777632873E-02
  -0.3656716350E+00  -0.4701492490E+00   0.4692541162E-02   0.0000000000E+00   0.0000000000E+00  -0.4979728780E-02
  -0.3507462740E+00  -0.4701492490E+00   0.5591034477E-02   0.0000000000E+00   0.0000000000E+00  -0.5933266779E-02
  -0.3358208840E+00  -0.4701492490E+00   0.6210449005E-02   0.0000000000E+00   0.0000000000E+00  -0.6590656020E-02
  -0.3208955230E+00  -0.4701492490E+00   0.6519897865E-02   0.0000000000E+00   0.0000000000E+00  -0.6919081403E-02
  -0.3059701620E+00  -0.4701492490E+00   0.6503946322E-02   0.0000000000E+00   0.0000000000E+00  -0.6902151668E-02
  -0.2910447720E+00  -0.4701492490E+00   0.6163389786E-02   0.0000000000E+00   0.0000000000E+00  -0.6540710808E-02
  -0.2761194110E+00  -0.4701492490E+00   0.5515213918E-02   0.0000000000E+00   0.0000000000E+00  -0.5852800976E-02
  -0.2611940210E+00  -0.4701492490E+00   0.4591748226E-02   0.0000000000E+00   0.0000000000E+00  -0.4872755586E-02
  -0.2462686600E+00  -0.4701492490E+00   0.3439070726E-02   0.0000000000E+00   0.0000000000E+00  -0.3649495862E-02
  -0.2313432840E+00  -0.4701492490E+00   0.2114703865E-02   0.0000000000E+00   0.0000000000E+00  -0.2244075783E-02
  -0.2164179090E+00  -0.4701492490E+00   0.6847578694E-03   0.0000000000E+00   0.0000000000E+00  -0.7266460541E-03
  -0.2014925330E+00  -0.4701492490E+00  -0.7793768680E-03   0.0000000000E+00   0.0000000000E+00   0.8270532471E-03
  -0.1865671580E+00  -0.4701492490E+00  -0.2204598769E-02   0.0000000000E+00   0.0000000000E+00   0.2339471299E-02
  -0.1716417970E+00  -0.4701492490E+00  -0.3519752567E-02   0.0000000000E+00   0.0000000000E+00   0.3735116853E-02
  -0.1567164210E+00  -0.4701492490E+00  -0.4659192481E-02   0.0000000000E+00   0.0000000000E+00   0.4944330996E-02
  -0.1417910460E+00  -0.4701492490E+00  -0.5566053146E-02   0.0000000000E+00   0.0000000000E+00   0.5906756047E-02
  -0.1268656700E+00  -0.4701492490E+00  -0.6195089358E-02   0.0000000000E+00   0.0000000000E+00   0.6574354099E-02
  -0.1119403020E+00  -0.4701492490E+00  -0.6514924197E-02   0.0000000000E+00   0.0000000000E+00   0.6913802809E-02
  -0.9701492640E-01  -0.4701492490E+00  -0.6509606967E-02   0.0000000000E+00   0.0000000000E+00   0.6908159460E-02
  -0.8208955080E-01  -0.4701492490E+00  -0.6179402597E-02   0.0000000000E+00   0.0000000000E+00   0.6557705473E-02
  -0.6716418270E-01  -0.4701492490E+00  -0.5540779736E-02   0.0000000000E+00   0.0000000000E+00   0.5879933661E-02
  -0.5223880710E-01  -0.4701492490E+00  -0.4625592907E-02   0.0000000000E+00   0.0000000000E+00   0.4908673332E-02
  -0.3731343150E-01  -0.4701492490E+00  -0.3479503469E-02   0.0000000000E+00   0.0000000000E+00   0.3692403779E-02
  -0.2238805960E-01  -0.4701492490E+00  -0.2159708001E-02   0.0000000000E+00   0.0000000000E+00   0.2291833677E-02
  -0.7462686390E-02  -0.4701492490E+00  -0.7320865335E-03   0.0000000000E+00   0.0000000000E+00   0.7768699816E-03
   0.7462686390E-02  -0.4701492490E+00   0.7320865335E-03   0.0000000000E+00   0.0000000000E+00  -0.7768699816E-03
   0.2238805960E-01  -0.4701492490E+00   0.2159708001E-02   0.0000000000E+00   0.0000000000E+00  -0.2291833677E-02
   0.3731343150E-01  -0.4701492490E+00   0.3479503469E-02   0.0000000000E+00   0.0000000000E+00  -0.3692403779E-02
   0.5223880710E-01  -0.4701492490E+00   0.4625592907E-02   0.0000000000E+00   0.0000000000E+00  -0.4908673332E-02
   0.6716418270E-01  -0.4701492490E+00   0.5540779736E-02   0.0000000000E+00   0.0000000000E+00  -0.5879933661E-02
   0.8208955080E-01  -0.4701492490E+00   0.6179402597E-02   0.0000000000E+00   0.0000000000E+00  -0.6557705473E-02
   0.9701492640E-01  -0.4701492490E+00   0.6509606967E-02   0.0000000000E+00   0.0000000000E+00  -0.6908159460E-02
   0.1119403020E+00  -0.4701492490E+00   0.6514924197E-02   0.0000000000E+00   0.0000000000E+00  -0.6913802809E-02
   0.1268656700E+00  -0.4701492490E+00   0.6195089358E-02   0.0000000000E+00   0.0000000000E+00  -0.6574354099E-02
   0.1417910460E+00  -0.4701492490E+00   0.5566053146E-02   0.0000000000E+00   0.0000000000E+00  -0.5906756047E-02
   0.1567164210E+00  -0.4701492490E+00   0.4659192481E-02   0.0000000000E+00   0.0000000000E+00  -0.4944330996E-02
   0.1716417970E+00  -0.4701492490E+00   0.3519752567E-02   0.0000000000E+00   0.0000000000E+00  -0.3735116853E-02
   0.1865671580E+00  -0.4701492490E+00   0.2204598769E-02   0.0000000000E+00   0.0000000000E+00  -0.2339471299E-02
   0.2014925330E+00  -0.4701492490E+00   0.7793768680E-03   0.0000000000E+00   0.0000000000E+00  -0.8270532471E-03
   0.2164179090E+00  -0.4701492490E+00  -0.6847578694E-03   0.0000000000E+00   0.0000000000E+00   0.7266460541E-03
   0.2313432840E+00  -0.4701492490E+00  -0.2114703865E-02   0.0000000000E+00   0.0000000000E+00   0.2244075783E-02
   0.2462686600E+00  -0.4701492490E+00  -0.3439070726E-02   0.0000000000E+00   0.0000000000E+00   0.3649495862E-02
   0.2611940210E+00  -0.4701492490E+00  -0.4591748226E-02   0.0000000000E+00   0.0000000000E+00   0.4872755586E-02
   0.2761194110E+00  -0.4701492490E+00  -0.5515213918E-02   0.0000000000E+00   0.0000000000E+00   0.5852800976E-02
   0.2910447720E+00  -0.4701492490E+00  -0.6163389786E-02   0.0000000000E+00   0.0000000000E+00   0.6540710808E-02
   0.3059701620E+00  -0.4701492490E+00  -0.6503946322E-02   0.0000000000E+00   0.0000000000E+00   0.6902151668E-02
   0.3208955230E+00  -0.4701492490E+00  -0.6519897865E-02   0.0000000000E+00   0.0000000000E+00   0.6919081403E-02
   0.3358208840E+00  -0.4701492490E+00  -0.6210449005E-02   0.0000000000E+00   0.0000000000E+00   0.6590656020E-02
   0.3507462740E+00  -0.4701492490E+00  -0.5591034477E-02   0.0000000000E+00   0.0000000000E+00   0.5933266779E-02
   0.3656716350E+00  -0.4701492490E+00  -0.4692541162E-02   0.0000000000E+00   0.0000000000E+00   0.4979728780E-02
   0.3805970250E+00  -0.4701492490E+00  -0.3559838238E-02   0.0000000000E+00   0.0000000000E+00   0.3777632873E-02
   0.3955223860E+00  -0.4701492490E+00  -0.2249288981E-02   0.0000000000E+00   0.0000000000E+00   0.2386984446E-02
   0.4104477470E+00  -0.4701492490E+00  -0.8269371921E-03   0.0000000000E+00   0.0000000000E+00   0.8771934263E-03
   0.4253731370E+00  -0.4701492490E+00   0.6385527775E-03   0.0000000000E+00   0.0000000000E+00  -0.6763843410E-03
   0.4402984980E+00  -0.4701492490E+00   0.2065260977E-02   0.0000000000E+00   0.0000000000E+00  -0.2196198442E-02
   0.4552238880E+00  -0.4701492490E+00   0.3414601867E-02   0.0000000000E+00   0.0000000000E+00  -0.3606395321E-02
   0.4701492490E+00  -0.4701492490E+00   0.4497406559E-02   0.0000000000E+00   0.0000000000E+00  -0.4836581753E-02
   0.4850746390E+00  -0.4701492490E+00   0.5714233969E-02   0.0000000000E+00   0.0000000000E+00  -0.5825359429E-02
   0.5000000000E+00  -0.4701492490E+00   0.5307799179E-02   0.0000000000E+00   0.0000000000E+00  -0.6523371233E-02
  -0.4850746390E+00  -0.4552238880E+00  -0.4334443812E-02   0.0000000000E+00   0.0000000000E+00   0.4343677015E-02
  -0.5000000000E+00  -0.4552238880E+00  -0.4040227539E-02   0.0000000000E+00   0.0000000000E+00   0.4864149248E-02
  -0.4701492490E+00  -0.4552238880E+00  -0.3414601867E-02   0.0000000000E+00   0.0000000000E+00   0.3606395321E-02
  -0.4552238880E+00  -0.4552238880E+00  -0.2591651982E-02   0.0000000000E+00   0.0000000000E+00   0.2689107282E-02
  -0.4402984980E+00  -0.4552238880E+00  -0.1567696830E-02   0.0000000000E+00   0.0000000000E+00   0.1637594522E-02
  -0.4253731370E+00  -0.4552238880E+00  -0.4846776598E-03   0.0000000000E+00   0.0000000000E+00   0.5043457234E-03
  -0.4104477470E+00  -0.4552238880E+00   0.6276822330E-03   0.0000000000E+00   0.0000000000E+00  -0.6540789405E-03
  -0.3955223860E+00  -0.4552238880E+00   0.1707327402E-02   0.0000000000E+00   0.0000000000E+00  -0.1779854033E-02
  -0.3805970250E+00  -0.4552238880E+00   0.2702112131E-02   0.0000000000E+00   0.0000000000E+00  -0.2816790497E-02
  -0.3656716350E+00  -0.4552238880E+00   0.3561915078E-02   0.0000000000E+00   0.0000000000E+00  -0.3713132847E-02
  -0.3507462740E+00  -0.4552238880E+00   0.4243946601E-02   0.0000000000E+00   0.0000000000E+00  -0.4424138089E-02
  -0.3358208840E+00  -0.4552238880E+00   0.4714140793E-02   0.0000000000E+00   0.0000000000E+00  -0.4914320123E-02
  -0.3208955230E+00  -0.4552238880E+00   0.4949043989E-02   0.0000000000E+00   0.0000000000E+00  -0.5159210383E-02
  -0.3059701620E+00  -0.4552238880E+00   0.4936935107E-02   0.0000000000E+00   0.0000000000E+00  -0.5146586733E-02
  -0.2910447720E+00  -0.4552238880E+00   0.4678418183E-02   0.0000000000E+00   0.0000000000E+00  -0.4877078495E-02
  -0.2761194110E+00  -0.4552238880E+00   0.4186392047E-02   0.0000000000E+00   0.0000000000E+00  -0.4364138794E-02
  -0.2611940210E+00  -0.4552238880E+00   0.3485405371E-02   0.0000000000E+00   0.0000000000E+00  -0.3633368326E-02
  -0.2462686600E+00  -0.4552238880E+00   0.2610442011E-02   0.0000000000E+00   0.0000000000E+00  -0.2721245184E-02
  -0.2313432840E+00  -0.4552238880E+00   0.1605168709E-02   0.0000000000E+00   0.0000000000E+00  -0.1673294244E-02
  -0.2164179090E+00  -0.4552238880E+00   0.5197651650E-03   0.0000000000E+00   0.0000000000E+00  -0.5418233503E-03
  -0.2014925330E+00  -0.4552238880E+00  -0.5915857217E-03   0.0000000000E+00   0.0000000000E+00   0.6166919352E-03
  -0.1865671580E+00  -0.4552238880E+00  -0.1673403922E-02   0.0000000000E+00   0.0000000000E+00   0.1744425873E-02
  -0.1716417970E+00  -0.4552238880E+00  -0.2671684776E-02   0.0000000000E+00   0.0000000000E+00   0.2785088443E-02
  -0.1567164210E+00  -0.4552238880E+00  -0.3536600759E-02   0.0000000000E+00   0.0000000000E+00   0.3686738503E-02
  -0.1417910460E+00  -0.4552238880E+00  -0.4224983553E-02   0.0000000000E+00   0.0000000000E+00   0.4404370372E-02
  -0.1268656700E+00  -0.4552238880E+00  -0.4702481291E-02   0.0000000000E+00   0.0000000000E+00   0.4902164602E-02
  -0.1119403020E+00  -0.4552238880E+00  -0.4945268457E-02   0.0000000000E+00   0.0000000000E+00   0.5155274402E-02
  -0.9701492640E-01  -0.4552238880E+00  -0.4941232125E-02   0.0000000000E+00   0.0000000000E+00   0.5151066441E-02
  -0.8208955080E-01  -0.4552238880E+00  -0.4690573487E-02   0.0000000000E+00   0.0000000000E+00   0.4889750560E-02
  -0.6716418270E-01  -0.4552238880E+00  -0.4205798777E-02   0.0000000000E+00   0.0000000000E+00   0.4384370270E-02
  -0.5223880710E-01  -0.4552238880E+00  -0.3511096086E-02   0.0000000000E+00   0.0000000000E+00   0.3660150379E-02
  -0.3731343150E-01  -0.4552238880E+00  -0.2641133085E-02   0.0000000000E+00   0.0000000000E+00   0.2753239456E-02
  -0.2238805960E-01  -0.4552238880E+00  -0.1639329336E-02   0.0000000000E+00   0.0000000000E+00   0.1708904899E-02
  -0.7462686390E-02  -0.4552238880E+00  -0.5556899883E-03   0.0000000000E+00   0.0000000000E+00   0.5792728025E-03
   0.7462686390E-02  -0.4552238880E+00   0.5556899883E-03   0.0000000000E+00   0.0000000000E+00  -0.5792728025E-03
   0.2238805960E-01  -0.4552238880E+00   0.1639329336E-02   0.0000000000E+00   0.0000000000E+00  -0.1708904899E-02
   0.3731343150E-01  -0.4552238880E+00   0.2641133085E-02   0.0000000000E+00   0.0000000000E+00  -0.2753239456E-02
   0.5223880710E-01  -0.4552238880E+00   0.3511096086E-02   0.0000000000E+00   0.0000000000E+00  -0.3660150379E-02
   0.6716418270E-01  -0.4552238880E+00   0.4205798777E-02   0.0000000000E+00   0.0000000000E+00  -0.4384370270E-02
   0.8208955080E-01  -0.4552238880E+00   0.4690573487E-02   0.0000000000E+00   0.0000000000E+00  -0.4889750560E-02
   0.9701492640E-01  -0.4552238880E+00   0.4941232125E-02   0.0000000000E+00   0.0000000000E+00  -0.5151066441E-02
   0.1119403020E+00  -0.4552238880E+00   0.4945268457E-02   0.0000000000E+00   0.0000000000E+00  -0.5155274402E-02
   0.1268656700E+00  -0.4552238880E+00   0.4702481291E-02   0.0000000000E+00   0.0000000000E+00  -0.4902164602E-02
   0.1417910460E+00  -0.4552238880E+00   0.4224983553E-02   0.0000000000E+00   0.0000000000E+00  -0.4404370372E-02
   0.1567164210E+00  -0.4552238880E+00   0.3536600759E-02   0.0000000000E+00   0.0000000000E+00  -0.3686738503E-02
   0.1716417970E+00  -0.4552238880E+00   0.2671684776E-02   0.0000000000E+00   0.0000000000E+00  -0.2785088443E-02
   0.1865671580E+00  -0.4552238880E+00   0.1673403922E-02   0.0000000000E+00   0.0000000000E+00  -0.1744425873E-02
   0.2014925330E+00  -0.4552238880E+00   0.5915857217E-03   0.0000000000E+00   0.0000000000E+00  -0.6166919352E-03
   0.2164179090E+00  -0.4552238880E+00  -0.5197651650E-03   0.0000000000E+00   0.0000000000E+00   0.5418233503E-03
   0.2313432840E+00  -0.4552238880E+00  -0.1605168709E-02   0.0000000000E+00   0.0000000000E+00   0.1673294244E-02
   0.2462686600E+00  -0.4552238880E+00  -0.2610442011E-02   0.0000000000E+00   0.0000000000E+00   0.2721245184E-02
   0.2611940210E+00  -0.4552238880E+00  -0.3485405371E-02   0.0000000000E+00   0.0000000000E+00   0.3633368326E-02
   0.2761194110E+00  -0.4552238880E+00  -0.4186392047E-02   0.0000000000E+00   0.0000000000E+00   0.4364138794E-02